ITEM: TIMESTEP
0
ITEM: NUMBER OF ATOMS
3
ITEM: BOX BOUNDS xy xz yz
0.000000 14.000000 4.000000
0.000000 10.000000 0.000000
0.000000 10.000000 0.000000
ITEM: ATOMS id xu yu zu
1 0.000000 0.000000 0.000000
2 1.000000 0.000000 0.000000
3 10.000000 0.000000 0.000000
ITEM: TIMESTEP
0
ITEM: NUMBER OF ATOMS
3
ITEM: BOX BOUNDS xy xz yz
0.000000 14.000000 4.000000
0.000000 10.000000 0.000000
0.000000 10.000000 0.000000
ITEM: ATOMS id xu yu zu
1 0.000000 0.000000 0.000000
2 -4.000000 4.000000 0.000000
3 0.000000 14.000000 0.000000
ITEM: TIMESTEP
0
ITEM: NUMBER OF ATOMS
3
ITEM: BOX BOUNDS xy xz yz
0.000000 14.000000 4.000000
0.000000 10.000000 0.000000
0.000000 10.000000 0.000000
ITEM: ATOMS id xu yu zu
1 0.000000 0.000000 0.000000
2 21.000000 29.000000 0.000000
3 25.000000 39.000000 0.000000
