ITEM: TIMESTEP
0
ITEM: NUMBER OF ATOMS
3
ITEM: BOX BOUNDS xy xz yz
0.000000 10.000000 0.000000
0.000000 10.000000 0.000000
0.000000 10.000000 0.000000
ITEM: ATOMS id xu yu zu
1 0.000000 0.000000 0.000000
2 1.000000 0.000000 0.000000
3 10.000000 0.000000 0.000000
ITEM: TIMESTEP
0
ITEM: NUMBER OF ATOMS
3
ITEM: BOX BOUNDS xy xz yz
0.000000 10.000000 0.000000
0.000000 10.000000 0.000000
0.000000 10.000000 0.000000
ITEM: ATOMS id xu yu zu
1 0.000000 0.000000 0.000000
2 0.000000 2.500000 0.000000
3 0.000000 12.500000 0.000000
ITEM: TIMESTEP
0
ITEM: NUMBER OF ATOMS
3
ITEM: BOX BOUNDS xy xz yz
0.000000 10.000000 0.000000
0.000000 10.100000 0.000000
0.000000 10.000000 0.000000
ITEM: ATOMS id xu yu zu
1 0.000000 0.000000 0.000000
2 0.000000 2.525000 0.000000
3 0.000000 12.625000 0.000000
ITEM: TIMESTEP
0
ITEM: NUMBER OF ATOMS
3
ITEM: BOX BOUNDS xy xz yz
0.000000 10.000000 0.000000
0.000000 10.200000 0.000000
0.000000 10.000000 0.000000
ITEM: ATOMS id xu yu zu
1 0.000000 0.000000 0.000000
2 0.000000 2.550000 0.000000
3 0.000000 12.750000 0.000000
ITEM: TIMESTEP
0
ITEM: NUMBER OF ATOMS
3
ITEM: BOX BOUNDS xy xz yz
0.000000 10.000000 0.000000
0.000000 10.300000 0.000000
0.000000 10.000000 0.000000
ITEM: ATOMS id xu yu zu
1 0.000000 0.000000 0.000000
2 0.000000 2.575000 0.000000
3 0.000000 12.875000 0.000000
ITEM: TIMESTEP
0
ITEM: NUMBER OF ATOMS
3
ITEM: BOX BOUNDS xy xz yz
0.000000 10.000000 0.000000
0.000000 10.400000 0.000000
0.000000 10.000000 0.000000
ITEM: ATOMS id xu yu zu
1 0.000000 0.000000 0.000000
2 0.000000 2.600000 0.000000
3 0.000000 13.000000 0.000000
ITEM: TIMESTEP
0
ITEM: NUMBER OF ATOMS
3
ITEM: BOX BOUNDS xy xz yz
0.000000 10.000000 0.000000
0.000000 10.500000 0.000000
0.000000 10.000000 0.000000
ITEM: ATOMS id xu yu zu
1 0.000000 0.000000 0.000000
2 0.000000 2.625000 0.000000
3 0.000000 13.125000 0.000000
ITEM: TIMESTEP
0
ITEM: NUMBER OF ATOMS
3
ITEM: BOX BOUNDS xy xz yz
0.000000 10.000000 0.000000
0.000000 10.600000 0.000000
0.000000 10.000000 0.000000
ITEM: ATOMS id xu yu zu
1 0.000000 0.000000 0.000000
2 0.000000 2.650000 0.000000
3 0.000000 13.250000 0.000000
ITEM: TIMESTEP
0
ITEM: NUMBER OF ATOMS
3
ITEM: BOX BOUNDS xy xz yz
0.000000 10.000000 0.000000
0.000000 10.700000 0.000000
0.000000 10.000000 0.000000
ITEM: ATOMS id xu yu zu
1 0.000000 0.000000 0.000000
2 0.000000 2.675000 0.000000
3 0.000000 13.375000 0.000000
ITEM: TIMESTEP
0
ITEM: NUMBER OF ATOMS
3
ITEM: BOX BOUNDS xy xz yz
0.000000 10.000000 0.000000
0.000000 10.800000 0.000000
0.000000 10.000000 0.000000
ITEM: ATOMS id xu yu zu
1 0.000000 0.000000 0.000000
2 0.000000 2.700000 0.000000
3 0.000000 13.500000 0.000000
ITEM: TIMESTEP
0
ITEM: NUMBER OF ATOMS
3
ITEM: BOX BOUNDS xy xz yz
0.000000 10.000000 0.000000
0.000000 10.900000 0.000000
0.000000 10.000000 0.000000
ITEM: ATOMS id xu yu zu
1 0.000000 0.000000 0.000000
2 0.000000 2.725000 0.000000
3 0.000000 13.625000 0.000000
ITEM: TIMESTEP
0
ITEM: NUMBER OF ATOMS
3
ITEM: BOX BOUNDS xy xz yz
0.000000 10.000000 0.000000
0.000000 11.000000 0.000000
0.000000 10.000000 0.000000
ITEM: ATOMS id xu yu zu
1 0.000000 0.000000 0.000000
2 0.000000 2.750000 0.000000
3 0.000000 13.750000 0.000000
ITEM: TIMESTEP
0
ITEM: NUMBER OF ATOMS
3
ITEM: BOX BOUNDS xy xz yz
0.000000 10.000000 0.000000
0.000000 11.100000 0.000000
0.000000 10.000000 0.000000
ITEM: ATOMS id xu yu zu
1 0.000000 0.000000 0.000000
2 0.000000 2.775000 0.000000
3 0.000000 13.875000 0.000000
ITEM: TIMESTEP
0
ITEM: NUMBER OF ATOMS
3
ITEM: BOX BOUNDS xy xz yz
0.000000 10.000000 0.000000
0.000000 11.200000 0.000000
0.000000 10.000000 0.000000
ITEM: ATOMS id xu yu zu
1 0.000000 0.000000 0.000000
2 0.000000 2.800000 0.000000
3 0.000000 14.000000 0.000000
ITEM: TIMESTEP
0
ITEM: NUMBER OF ATOMS
3
ITEM: BOX BOUNDS xy xz yz
0.000000 10.000000 0.000000
0.000000 11.300000 0.000000
0.000000 10.000000 0.000000
ITEM: ATOMS id xu yu zu
1 0.000000 0.000000 0.000000
2 0.000000 2.825000 0.000000
3 0.000000 14.125000 0.000000
ITEM: TIMESTEP
0
ITEM: NUMBER OF ATOMS
3
ITEM: BOX BOUNDS xy xz yz
0.000000 10.000000 0.000000
0.000000 11.400000 0.000000
0.000000 10.000000 0.000000
ITEM: ATOMS id xu yu zu
1 0.000000 0.000000 0.000000
2 0.000000 2.850000 0.000000
3 0.000000 14.250000 0.000000
ITEM: TIMESTEP
0
ITEM: NUMBER OF ATOMS
3
ITEM: BOX BOUNDS xy xz yz
0.000000 10.000000 0.000000
0.000000 11.500000 0.000000
0.000000 10.000000 0.000000
ITEM: ATOMS id xu yu zu
1 0.000000 0.000000 0.000000
2 0.000000 2.875000 0.000000
3 0.000000 14.375000 0.000000
ITEM: TIMESTEP
0
ITEM: NUMBER OF ATOMS
3
ITEM: BOX BOUNDS xy xz yz
0.000000 10.000000 0.000000
0.000000 11.600000 0.000000
0.000000 10.000000 0.000000
ITEM: ATOMS id xu yu zu
1 0.000000 0.000000 0.000000
2 0.000000 2.900000 0.000000
3 0.000000 14.500000 0.000000
ITEM: TIMESTEP
0
ITEM: NUMBER OF ATOMS
3
ITEM: BOX BOUNDS xy xz yz
0.000000 10.000000 0.000000
0.000000 11.700000 0.000000
0.000000 10.000000 0.000000
ITEM: ATOMS id xu yu zu
1 0.000000 0.000000 0.000000
2 0.000000 2.925000 0.000000
3 0.000000 14.625000 0.000000
ITEM: TIMESTEP
0
ITEM: NUMBER OF ATOMS
3
ITEM: BOX BOUNDS xy xz yz
0.000000 10.000000 0.000000
0.000000 11.800000 0.000000
0.000000 10.000000 0.000000
ITEM: ATOMS id xu yu zu
1 0.000000 0.000000 0.000000
2 0.000000 2.950000 0.000000
3 0.000000 14.750000 0.000000
ITEM: TIMESTEP
0
ITEM: NUMBER OF ATOMS
3
ITEM: BOX BOUNDS xy xz yz
0.000000 10.000000 0.000000
0.000000 11.900000 0.000000
0.000000 10.000000 0.000000
ITEM: ATOMS id xu yu zu
1 0.000000 0.000000 0.000000
2 0.000000 2.975000 0.000000
3 0.000000 14.875000 0.000000
ITEM: TIMESTEP
0
ITEM: NUMBER OF ATOMS
3
ITEM: BOX BOUNDS xy xz yz
0.000000 10.000000 0.000000
0.000000 12.000000 0.000000
0.000000 10.000000 0.000000
ITEM: ATOMS id xu yu zu
1 0.000000 0.000000 0.000000
2 0.000000 3.000000 0.000000
3 0.000000 15.000000 0.000000
ITEM: TIMESTEP
0
ITEM: NUMBER OF ATOMS
3
ITEM: BOX BOUNDS xy xz yz
0.000000 10.000000 0.000000
0.000000 12.100000 0.000000
0.000000 10.000000 0.000000
ITEM: ATOMS id xu yu zu
1 0.000000 0.000000 0.000000
2 0.000000 3.025000 0.000000
3 0.000000 15.125000 0.000000
ITEM: TIMESTEP
0
ITEM: NUMBER OF ATOMS
3
ITEM: BOX BOUNDS xy xz yz
0.000000 10.000000 0.000000
0.000000 12.200000 0.000000
0.000000 10.000000 0.000000
ITEM: ATOMS id xu yu zu
1 0.000000 0.000000 0.000000
2 0.000000 3.050000 0.000000
3 0.000000 15.250000 0.000000
ITEM: TIMESTEP
0
ITEM: NUMBER OF ATOMS
3
ITEM: BOX BOUNDS xy xz yz
0.000000 10.000000 0.000000
0.000000 12.300000 0.000000
0.000000 10.000000 0.000000
ITEM: ATOMS id xu yu zu
1 0.000000 0.000000 0.000000
2 0.000000 3.075000 0.000000
3 0.000000 15.375000 0.000000
ITEM: TIMESTEP
0
ITEM: NUMBER OF ATOMS
3
ITEM: BOX BOUNDS xy xz yz
0.000000 10.000000 0.000000
0.000000 12.400000 0.000000
0.000000 10.000000 0.000000
ITEM: ATOMS id xu yu zu
1 0.000000 0.000000 0.000000
2 0.000000 3.100000 0.000000
3 0.000000 15.500000 0.000000
ITEM: TIMESTEP
0
ITEM: NUMBER OF ATOMS
3
ITEM: BOX BOUNDS xy xz yz
0.000000 10.000000 0.000000
0.000000 12.500000 0.000000
0.000000 10.000000 0.000000
ITEM: ATOMS id xu yu zu
1 0.000000 0.000000 0.000000
2 0.000000 3.125000 0.000000
3 0.000000 15.625000 0.000000
ITEM: TIMESTEP
0
ITEM: NUMBER OF ATOMS
3
ITEM: BOX BOUNDS xy xz yz
0.000000 10.000000 0.000000
0.000000 12.600000 0.000000
0.000000 10.000000 0.000000
ITEM: ATOMS id xu yu zu
1 0.000000 0.000000 0.000000
2 0.000000 3.150000 0.000000
3 0.000000 15.750000 0.000000
ITEM: TIMESTEP
0
ITEM: NUMBER OF ATOMS
3
ITEM: BOX BOUNDS xy xz yz
0.000000 10.000000 0.000000
0.000000 12.700000 0.000000
0.000000 10.000000 0.000000
ITEM: ATOMS id xu yu zu
1 0.000000 0.000000 0.000000
2 0.000000 3.175000 0.000000
3 0.000000 15.875000 0.000000
ITEM: TIMESTEP
0
ITEM: NUMBER OF ATOMS
3
ITEM: BOX BOUNDS xy xz yz
0.000000 10.000000 0.000000
0.000000 12.800000 0.000000
0.000000 10.000000 0.000000
ITEM: ATOMS id xu yu zu
1 0.000000 0.000000 0.000000
2 0.000000 3.200000 0.000000
3 0.000000 16.000000 0.000000
ITEM: TIMESTEP
0
ITEM: NUMBER OF ATOMS
3
ITEM: BOX BOUNDS xy xz yz
0.000000 10.000000 0.000000
0.000000 12.900000 0.000000
0.000000 10.000000 0.000000
ITEM: ATOMS id xu yu zu
1 0.000000 0.000000 0.000000
2 0.000000 3.225000 0.000000
3 0.000000 16.125000 0.000000
ITEM: TIMESTEP
0
ITEM: NUMBER OF ATOMS
3
ITEM: BOX BOUNDS xy xz yz
0.000000 10.000000 0.000000
0.000000 13.000000 0.000000
0.000000 10.000000 0.000000
ITEM: ATOMS id xu yu zu
1 0.000000 0.000000 0.000000
2 0.000000 3.250000 0.000000
3 0.000000 16.250000 0.000000
ITEM: TIMESTEP
0
ITEM: NUMBER OF ATOMS
3
ITEM: BOX BOUNDS xy xz yz
0.000000 10.000000 0.000000
0.000000 13.100000 0.000000
0.000000 10.000000 0.000000
ITEM: ATOMS id xu yu zu
1 0.000000 0.000000 0.000000
2 0.000000 3.275000 0.000000
3 0.000000 16.375000 0.000000
ITEM: TIMESTEP
0
ITEM: NUMBER OF ATOMS
3
ITEM: BOX BOUNDS xy xz yz
0.000000 10.000000 0.000000
0.000000 13.200000 0.000000
0.000000 10.000000 0.000000
ITEM: ATOMS id xu yu zu
1 0.000000 0.000000 0.000000
2 0.000000 3.300000 0.000000
3 0.000000 16.500000 0.000000
ITEM: TIMESTEP
0
ITEM: NUMBER OF ATOMS
3
ITEM: BOX BOUNDS xy xz yz
0.000000 10.000000 0.000000
0.000000 13.300000 0.000000
0.000000 10.000000 0.000000
ITEM: ATOMS id xu yu zu
1 0.000000 0.000000 0.000000
2 0.000000 3.325000 0.000000
3 0.000000 16.625000 0.000000
ITEM: TIMESTEP
0
ITEM: NUMBER OF ATOMS
3
ITEM: BOX BOUNDS xy xz yz
0.000000 10.000000 0.000000
0.000000 13.400000 0.000000
0.000000 10.000000 0.000000
ITEM: ATOMS id xu yu zu
1 0.000000 0.000000 0.000000
2 0.000000 3.350000 0.000000
3 0.000000 16.750000 0.000000
ITEM: TIMESTEP
0
ITEM: NUMBER OF ATOMS
3
ITEM: BOX BOUNDS xy xz yz
0.000000 10.000000 0.000000
0.000000 13.500000 0.000000
0.000000 10.000000 0.000000
ITEM: ATOMS id xu yu zu
1 0.000000 0.000000 0.000000
2 0.000000 3.375000 0.000000
3 0.000000 16.875000 0.000000
ITEM: TIMESTEP
0
ITEM: NUMBER OF ATOMS
3
ITEM: BOX BOUNDS xy xz yz
0.000000 10.000000 0.000000
0.000000 13.600000 0.000000
0.000000 10.000000 0.000000
ITEM: ATOMS id xu yu zu
1 0.000000 0.000000 0.000000
2 0.000000 3.400000 0.000000
3 0.000000 17.000000 0.000000
ITEM: TIMESTEP
0
ITEM: NUMBER OF ATOMS
3
ITEM: BOX BOUNDS xy xz yz
0.000000 10.000000 0.000000
0.000000 13.700000 0.000000
0.000000 10.000000 0.000000
ITEM: ATOMS id xu yu zu
1 0.000000 0.000000 0.000000
2 0.000000 3.425000 0.000000
3 0.000000 17.125000 0.000000
ITEM: TIMESTEP
0
ITEM: NUMBER OF ATOMS
3
ITEM: BOX BOUNDS xy xz yz
0.000000 10.000000 0.000000
0.000000 13.800000 0.000000
0.000000 10.000000 0.000000
ITEM: ATOMS id xu yu zu
1 0.000000 0.000000 0.000000
2 0.000000 3.450000 0.000000
3 0.000000 17.250000 0.000000
ITEM: TIMESTEP
0
ITEM: NUMBER OF ATOMS
3
ITEM: BOX BOUNDS xy xz yz
0.000000 10.000000 0.000000
0.000000 13.900000 0.000000
0.000000 10.000000 0.000000
ITEM: ATOMS id xu yu zu
1 0.000000 0.000000 0.000000
2 0.000000 3.475000 0.000000
3 0.000000 17.375000 0.000000
ITEM: TIMESTEP
0
ITEM: NUMBER OF ATOMS
3
ITEM: BOX BOUNDS xy xz yz
0.000000 10.000000 0.000000
0.000000 14.000000 0.000000
0.000000 10.000000 0.000000
ITEM: ATOMS id xu yu zu
1 0.000000 0.000000 0.000000
2 0.000000 3.500000 0.000000
3 0.000000 17.500000 0.000000
ITEM: TIMESTEP
0
ITEM: NUMBER OF ATOMS
3
ITEM: BOX BOUNDS xy xz yz
0.000000 10.000000 0.000000
0.000000 14.100000 0.000000
0.000000 10.000000 0.000000
ITEM: ATOMS id xu yu zu
1 0.000000 0.000000 0.000000
2 0.000000 3.525000 0.000000
3 0.000000 17.625000 0.000000
ITEM: TIMESTEP
0
ITEM: NUMBER OF ATOMS
3
ITEM: BOX BOUNDS xy xz yz
0.000000 10.000000 0.000000
0.000000 14.200000 0.000000
0.000000 10.000000 0.000000
ITEM: ATOMS id xu yu zu
1 0.000000 0.000000 0.000000
2 0.000000 3.550000 0.000000
3 0.000000 17.750000 0.000000
ITEM: TIMESTEP
0
ITEM: NUMBER OF ATOMS
3
ITEM: BOX BOUNDS xy xz yz
0.000000 10.000000 0.000000
0.000000 14.300000 0.000000
0.000000 10.000000 0.000000
ITEM: ATOMS id xu yu zu
1 0.000000 0.000000 0.000000
2 0.000000 3.575000 0.000000
3 0.000000 17.875000 0.000000
ITEM: TIMESTEP
0
ITEM: NUMBER OF ATOMS
3
ITEM: BOX BOUNDS xy xz yz
0.000000 10.000000 0.000000
0.000000 14.400000 0.000000
0.000000 10.000000 0.000000
ITEM: ATOMS id xu yu zu
1 0.000000 0.000000 0.000000
2 0.000000 3.600000 0.000000
3 0.000000 18.000000 0.000000
ITEM: TIMESTEP
0
ITEM: NUMBER OF ATOMS
3
ITEM: BOX BOUNDS xy xz yz
0.000000 10.000000 0.000000
0.000000 14.500000 0.000000
0.000000 10.000000 0.000000
ITEM: ATOMS id xu yu zu
1 0.000000 0.000000 0.000000
2 0.000000 3.625000 0.000000
3 0.000000 18.125000 0.000000
ITEM: TIMESTEP
0
ITEM: NUMBER OF ATOMS
3
ITEM: BOX BOUNDS xy xz yz
0.000000 10.000000 0.000000
0.000000 14.600000 0.000000
0.000000 10.000000 0.000000
ITEM: ATOMS id xu yu zu
1 0.000000 0.000000 0.000000
2 0.000000 3.650000 0.000000
3 0.000000 18.250000 0.000000
ITEM: TIMESTEP
0
ITEM: NUMBER OF ATOMS
3
ITEM: BOX BOUNDS xy xz yz
0.000000 10.000000 0.000000
0.000000 14.700000 0.000000
0.000000 10.000000 0.000000
ITEM: ATOMS id xu yu zu
1 0.000000 0.000000 0.000000
2 0.000000 3.675000 0.000000
3 0.000000 18.375000 0.000000
ITEM: TIMESTEP
0
ITEM: NUMBER OF ATOMS
3
ITEM: BOX BOUNDS xy xz yz
0.000000 10.000000 0.000000
0.000000 14.800000 0.000000
0.000000 10.000000 0.000000
ITEM: ATOMS id xu yu zu
1 0.000000 0.000000 0.000000
2 0.000000 3.700000 0.000000
3 0.000000 18.500000 0.000000
ITEM: TIMESTEP
0
ITEM: NUMBER OF ATOMS
3
ITEM: BOX BOUNDS xy xz yz
0.000000 10.000000 0.000000
0.000000 14.900000 0.000000
0.000000 10.000000 0.000000
ITEM: ATOMS id xu yu zu
1 0.000000 0.000000 0.000000
2 0.000000 3.725000 0.000000
3 0.000000 18.625000 0.000000
ITEM: TIMESTEP
0
ITEM: NUMBER OF ATOMS
3
ITEM: BOX BOUNDS xy xz yz
0.000000 10.000000 0.000000
0.000000 15.000000 0.000000
0.000000 10.000000 0.000000
ITEM: ATOMS id xu yu zu
1 0.000000 0.000000 0.000000
2 0.000000 3.750000 0.000000
3 0.000000 18.750000 0.000000
ITEM: TIMESTEP
0
ITEM: NUMBER OF ATOMS
3
ITEM: BOX BOUNDS xy xz yz
0.000000 10.000000 0.000000
0.000000 15.100000 0.000000
0.000000 10.000000 0.000000
ITEM: ATOMS id xu yu zu
1 0.000000 0.000000 0.000000
2 0.000000 3.775000 0.000000
3 0.000000 18.875000 0.000000
ITEM: TIMESTEP
0
ITEM: NUMBER OF ATOMS
3
ITEM: BOX BOUNDS xy xz yz
0.000000 10.000000 0.000000
0.000000 15.200000 0.000000
0.000000 10.000000 0.000000
ITEM: ATOMS id xu yu zu
1 0.000000 0.000000 0.000000
2 0.000000 3.800000 0.000000
3 0.000000 19.000000 0.000000
ITEM: TIMESTEP
0
ITEM: NUMBER OF ATOMS
3
ITEM: BOX BOUNDS xy xz yz
0.000000 10.000000 0.000000
0.000000 15.300000 0.000000
0.000000 10.000000 0.000000
ITEM: ATOMS id xu yu zu
1 0.000000 0.000000 0.000000
2 0.000000 3.825000 0.000000
3 0.000000 19.125000 0.000000
ITEM: TIMESTEP
0
ITEM: NUMBER OF ATOMS
3
ITEM: BOX BOUNDS xy xz yz
0.000000 10.000000 0.000000
0.000000 15.400000 0.000000
0.000000 10.000000 0.000000
ITEM: ATOMS id xu yu zu
1 0.000000 0.000000 0.000000
2 0.000000 3.850000 0.000000
3 0.000000 19.250000 0.000000
ITEM: TIMESTEP
0
ITEM: NUMBER OF ATOMS
3
ITEM: BOX BOUNDS xy xz yz
0.000000 10.000000 0.000000
0.000000 15.500000 0.000000
0.000000 10.000000 0.000000
ITEM: ATOMS id xu yu zu
1 0.000000 0.000000 0.000000
2 0.000000 3.875000 0.000000
3 0.000000 19.375000 0.000000
ITEM: TIMESTEP
0
ITEM: NUMBER OF ATOMS
3
ITEM: BOX BOUNDS xy xz yz
0.000000 10.000000 0.000000
0.000000 15.600000 0.000000
0.000000 10.000000 0.000000
ITEM: ATOMS id xu yu zu
1 0.000000 0.000000 0.000000
2 0.000000 3.900000 0.000000
3 0.000000 19.500000 0.000000
ITEM: TIMESTEP
0
ITEM: NUMBER OF ATOMS
3
ITEM: BOX BOUNDS xy xz yz
0.000000 10.000000 0.000000
0.000000 15.700000 0.000000
0.000000 10.000000 0.000000
ITEM: ATOMS id xu yu zu
1 0.000000 0.000000 0.000000
2 0.000000 3.925000 0.000000
3 0.000000 19.625000 0.000000
ITEM: TIMESTEP
0
ITEM: NUMBER OF ATOMS
3
ITEM: BOX BOUNDS xy xz yz
0.000000 10.000000 0.000000
0.000000 15.800000 0.000000
0.000000 10.000000 0.000000
ITEM: ATOMS id xu yu zu
1 0.000000 0.000000 0.000000
2 0.000000 3.950000 0.000000
3 0.000000 19.750000 0.000000
ITEM: TIMESTEP
0
ITEM: NUMBER OF ATOMS
3
ITEM: BOX BOUNDS xy xz yz
0.000000 10.000000 0.000000
0.000000 15.900000 0.000000
0.000000 10.000000 0.000000
ITEM: ATOMS id xu yu zu
1 0.000000 0.000000 0.000000
2 0.000000 3.975000 0.000000
3 0.000000 19.875000 0.000000
ITEM: TIMESTEP
0
ITEM: NUMBER OF ATOMS
3
ITEM: BOX BOUNDS xy xz yz
0.000000 10.000000 0.000000
0.000000 16.000000 0.000000
0.000000 10.000000 0.000000
ITEM: ATOMS id xu yu zu
1 0.000000 0.000000 0.000000
2 0.000000 4.000000 0.000000
3 0.000000 20.000000 0.000000
ITEM: TIMESTEP
0
ITEM: NUMBER OF ATOMS
3
ITEM: BOX BOUNDS xy xz yz
0.000000 10.000000 0.000000
0.000000 16.100000 0.000000
0.000000 10.000000 0.000000
ITEM: ATOMS id xu yu zu
1 0.000000 0.000000 0.000000
2 0.000000 4.025000 0.000000
3 0.000000 20.125000 0.000000
ITEM: TIMESTEP
0
ITEM: NUMBER OF ATOMS
3
ITEM: BOX BOUNDS xy xz yz
0.000000 10.000000 0.000000
0.000000 16.200000 0.000000
0.000000 10.000000 0.000000
ITEM: ATOMS id xu yu zu
1 0.000000 0.000000 0.000000
2 0.000000 4.050000 0.000000
3 0.000000 20.250000 0.000000
ITEM: TIMESTEP
0
ITEM: NUMBER OF ATOMS
3
ITEM: BOX BOUNDS xy xz yz
0.000000 10.000000 0.000000
0.000000 16.300000 0.000000
0.000000 10.000000 0.000000
ITEM: ATOMS id xu yu zu
1 0.000000 0.000000 0.000000
2 0.000000 4.075000 0.000000
3 0.000000 20.375000 0.000000
ITEM: TIMESTEP
0
ITEM: NUMBER OF ATOMS
3
ITEM: BOX BOUNDS xy xz yz
0.000000 10.000000 0.000000
0.000000 16.400000 0.000000
0.000000 10.000000 0.000000
ITEM: ATOMS id xu yu zu
1 0.000000 0.000000 0.000000
2 0.000000 4.100000 0.000000
3 0.000000 20.500000 0.000000
ITEM: TIMESTEP
0
ITEM: NUMBER OF ATOMS
3
ITEM: BOX BOUNDS xy xz yz
0.000000 10.000000 0.000000
0.000000 16.500000 0.000000
0.000000 10.000000 0.000000
ITEM: ATOMS id xu yu zu
1 0.000000 0.000000 0.000000
2 0.000000 4.125000 0.000000
3 0.000000 20.625000 0.000000
ITEM: TIMESTEP
0
ITEM: NUMBER OF ATOMS
3
ITEM: BOX BOUNDS xy xz yz
0.000000 10.000000 0.000000
0.000000 16.600000 0.000000
0.000000 10.000000 0.000000
ITEM: ATOMS id xu yu zu
1 0.000000 0.000000 0.000000
2 0.000000 4.150000 0.000000
3 0.000000 20.750000 0.000000
ITEM: TIMESTEP
0
ITEM: NUMBER OF ATOMS
3
ITEM: BOX BOUNDS xy xz yz
0.000000 10.000000 0.000000
0.000000 16.700000 0.000000
0.000000 10.000000 0.000000
ITEM: ATOMS id xu yu zu
1 0.000000 0.000000 0.000000
2 0.000000 4.175000 0.000000
3 0.000000 20.875000 0.000000
ITEM: TIMESTEP
0
ITEM: NUMBER OF ATOMS
3
ITEM: BOX BOUNDS xy xz yz
0.000000 10.000000 0.000000
0.000000 16.800000 0.000000
0.000000 10.000000 0.000000
ITEM: ATOMS id xu yu zu
1 0.000000 0.000000 0.000000
2 0.000000 4.200000 0.000000
3 0.000000 21.000000 0.000000
ITEM: TIMESTEP
0
ITEM: NUMBER OF ATOMS
3
ITEM: BOX BOUNDS xy xz yz
0.000000 10.000000 0.000000
0.000000 16.900000 0.000000
0.000000 10.000000 0.000000
ITEM: ATOMS id xu yu zu
1 0.000000 0.000000 0.000000
2 0.000000 4.225000 0.000000
3 0.000000 21.125000 0.000000
ITEM: TIMESTEP
0
ITEM: NUMBER OF ATOMS
3
ITEM: BOX BOUNDS xy xz yz
0.000000 10.000000 0.000000
0.000000 17.000000 0.000000
0.000000 10.000000 0.000000
ITEM: ATOMS id xu yu zu
1 0.000000 0.000000 0.000000
2 0.000000 4.250000 0.000000
3 0.000000 21.250000 0.000000
ITEM: TIMESTEP
0
ITEM: NUMBER OF ATOMS
3
ITEM: BOX BOUNDS xy xz yz
0.000000 10.000000 0.000000
0.000000 17.100000 0.000000
0.000000 10.000000 0.000000
ITEM: ATOMS id xu yu zu
1 0.000000 0.000000 0.000000
2 0.000000 4.275000 0.000000
3 0.000000 21.375000 0.000000
ITEM: TIMESTEP
0
ITEM: NUMBER OF ATOMS
3
ITEM: BOX BOUNDS xy xz yz
0.000000 10.000000 0.000000
0.000000 17.200000 0.000000
0.000000 10.000000 0.000000
ITEM: ATOMS id xu yu zu
1 0.000000 0.000000 0.000000
2 0.000000 4.300000 0.000000
3 0.000000 21.500000 0.000000
ITEM: TIMESTEP
0
ITEM: NUMBER OF ATOMS
3
ITEM: BOX BOUNDS xy xz yz
0.000000 10.000000 0.000000
0.000000 17.300000 0.000000
0.000000 10.000000 0.000000
ITEM: ATOMS id xu yu zu
1 0.000000 0.000000 0.000000
2 0.000000 4.325000 0.000000
3 0.000000 21.625000 0.000000
ITEM: TIMESTEP
0
ITEM: NUMBER OF ATOMS
3
ITEM: BOX BOUNDS xy xz yz
0.000000 10.000000 0.000000
0.000000 17.400000 0.000000
0.000000 10.000000 0.000000
ITEM: ATOMS id xu yu zu
1 0.000000 0.000000 0.000000
2 0.000000 4.350000 0.000000
3 0.000000 21.750000 0.000000
ITEM: TIMESTEP
0
ITEM: NUMBER OF ATOMS
3
ITEM: BOX BOUNDS xy xz yz
0.000000 10.000000 0.000000
0.000000 17.500000 0.000000
0.000000 10.000000 0.000000
ITEM: ATOMS id xu yu zu
1 0.000000 0.000000 0.000000
2 0.000000 4.375000 0.000000
3 0.000000 21.875000 0.000000
ITEM: TIMESTEP
0
ITEM: NUMBER OF ATOMS
3
ITEM: BOX BOUNDS xy xz yz
0.000000 10.000000 0.000000
0.000000 17.600000 0.000000
0.000000 10.000000 0.000000
ITEM: ATOMS id xu yu zu
1 0.000000 0.000000 0.000000
2 0.000000 4.400000 0.000000
3 0.000000 22.000000 0.000000
ITEM: TIMESTEP
0
ITEM: NUMBER OF ATOMS
3
ITEM: BOX BOUNDS xy xz yz
0.000000 10.000000 0.000000
0.000000 17.700000 0.000000
0.000000 10.000000 0.000000
ITEM: ATOMS id xu yu zu
1 0.000000 0.000000 0.000000
2 0.000000 4.425000 0.000000
3 0.000000 22.125000 0.000000
ITEM: TIMESTEP
0
ITEM: NUMBER OF ATOMS
3
ITEM: BOX BOUNDS xy xz yz
0.000000 10.000000 0.000000
0.000000 17.800000 0.000000
0.000000 10.000000 0.000000
ITEM: ATOMS id xu yu zu
1 0.000000 0.000000 0.000000
2 0.000000 4.450000 0.000000
3 0.000000 22.250000 0.000000
ITEM: TIMESTEP
0
ITEM: NUMBER OF ATOMS
3
ITEM: BOX BOUNDS xy xz yz
0.000000 10.000000 0.000000
0.000000 17.900000 0.000000
0.000000 10.000000 0.000000
ITEM: ATOMS id xu yu zu
1 0.000000 0.000000 0.000000
2 0.000000 4.475000 0.000000
3 0.000000 22.375000 0.000000
ITEM: TIMESTEP
0
ITEM: NUMBER OF ATOMS
3
ITEM: BOX BOUNDS xy xz yz
0.000000 10.000000 0.000000
0.000000 18.000000 0.000000
0.000000 10.000000 0.000000
ITEM: ATOMS id xu yu zu
1 0.000000 0.000000 0.000000
2 0.000000 4.500000 0.000000
3 0.000000 22.500000 0.000000
ITEM: TIMESTEP
0
ITEM: NUMBER OF ATOMS
3
ITEM: BOX BOUNDS xy xz yz
0.000000 10.000000 0.000000
0.000000 18.100000 0.000000
0.000000 10.000000 0.000000
ITEM: ATOMS id xu yu zu
1 0.000000 0.000000 0.000000
2 0.000000 4.525000 0.000000
3 0.000000 22.625000 0.000000
ITEM: TIMESTEP
0
ITEM: NUMBER OF ATOMS
3
ITEM: BOX BOUNDS xy xz yz
0.000000 10.000000 0.000000
0.000000 18.200000 0.000000
0.000000 10.000000 0.000000
ITEM: ATOMS id xu yu zu
1 0.000000 0.000000 0.000000
2 0.000000 4.550000 0.000000
3 0.000000 22.750000 0.000000
ITEM: TIMESTEP
0
ITEM: NUMBER OF ATOMS
3
ITEM: BOX BOUNDS xy xz yz
0.000000 10.000000 0.000000
0.000000 18.300000 0.000000
0.000000 10.000000 0.000000
ITEM: ATOMS id xu yu zu
1 0.000000 0.000000 0.000000
2 0.000000 4.575000 0.000000
3 0.000000 22.875000 0.000000
ITEM: TIMESTEP
0
ITEM: NUMBER OF ATOMS
3
ITEM: BOX BOUNDS xy xz yz
0.000000 10.000000 0.000000
0.000000 18.400000 0.000000
0.000000 10.000000 0.000000
ITEM: ATOMS id xu yu zu
1 0.000000 0.000000 0.000000
2 0.000000 4.600000 0.000000
3 0.000000 23.000000 0.000000
ITEM: TIMESTEP
0
ITEM: NUMBER OF ATOMS
3
ITEM: BOX BOUNDS xy xz yz
0.000000 10.000000 0.000000
0.000000 18.500000 0.000000
0.000000 10.000000 0.000000
ITEM: ATOMS id xu yu zu
1 0.000000 0.000000 0.000000
2 0.000000 4.625000 0.000000
3 0.000000 23.125000 0.000000
ITEM: TIMESTEP
0
ITEM: NUMBER OF ATOMS
3
ITEM: BOX BOUNDS xy xz yz
0.000000 10.000000 0.000000
0.000000 18.600000 0.000000
0.000000 10.000000 0.000000
ITEM: ATOMS id xu yu zu
1 0.000000 0.000000 0.000000
2 0.000000 4.650000 0.000000
3 0.000000 23.250000 0.000000
ITEM: TIMESTEP
0
ITEM: NUMBER OF ATOMS
3
ITEM: BOX BOUNDS xy xz yz
0.000000 10.000000 0.000000
0.000000 18.700000 0.000000
0.000000 10.000000 0.000000
ITEM: ATOMS id xu yu zu
1 0.000000 0.000000 0.000000
2 0.000000 4.675000 0.000000
3 0.000000 23.375000 0.000000
ITEM: TIMESTEP
0
ITEM: NUMBER OF ATOMS
3
ITEM: BOX BOUNDS xy xz yz
0.000000 10.000000 0.000000
0.000000 18.800000 0.000000
0.000000 10.000000 0.000000
ITEM: ATOMS id xu yu zu
1 0.000000 0.000000 0.000000
2 0.000000 4.700000 0.000000
3 0.000000 23.500000 0.000000
ITEM: TIMESTEP
0
ITEM: NUMBER OF ATOMS
3
ITEM: BOX BOUNDS xy xz yz
0.000000 10.000000 0.000000
0.000000 18.900000 0.000000
0.000000 10.000000 0.000000
ITEM: ATOMS id xu yu zu
1 0.000000 0.000000 0.000000
2 0.000000 4.725000 0.000000
3 0.000000 23.625000 0.000000
ITEM: TIMESTEP
0
ITEM: NUMBER OF ATOMS
3
ITEM: BOX BOUNDS xy xz yz
0.000000 10.000000 0.000000
0.000000 19.000000 0.000000
0.000000 10.000000 0.000000
ITEM: ATOMS id xu yu zu
1 0.000000 0.000000 0.000000
2 0.000000 4.750000 0.000000
3 0.000000 23.750000 0.000000
ITEM: TIMESTEP
0
ITEM: NUMBER OF ATOMS
3
ITEM: BOX BOUNDS xy xz yz
0.000000 10.000000 0.000000
0.000000 19.100000 0.000000
0.000000 10.000000 0.000000
ITEM: ATOMS id xu yu zu
1 0.000000 0.000000 0.000000
2 0.000000 4.775000 0.000000
3 0.000000 23.875000 0.000000
ITEM: TIMESTEP
0
ITEM: NUMBER OF ATOMS
3
ITEM: BOX BOUNDS xy xz yz
0.000000 10.000000 0.000000
0.000000 19.200000 0.000000
0.000000 10.000000 0.000000
ITEM: ATOMS id xu yu zu
1 0.000000 0.000000 0.000000
2 0.000000 4.800000 0.000000
3 0.000000 24.000000 0.000000
ITEM: TIMESTEP
0
ITEM: NUMBER OF ATOMS
3
ITEM: BOX BOUNDS xy xz yz
0.000000 10.000000 0.000000
0.000000 19.300000 0.000000
0.000000 10.000000 0.000000
ITEM: ATOMS id xu yu zu
1 0.000000 0.000000 0.000000
2 0.000000 4.825000 0.000000
3 0.000000 24.125000 0.000000
ITEM: TIMESTEP
0
ITEM: NUMBER OF ATOMS
3
ITEM: BOX BOUNDS xy xz yz
0.000000 10.000000 0.000000
0.000000 19.400000 0.000000
0.000000 10.000000 0.000000
ITEM: ATOMS id xu yu zu
1 0.000000 0.000000 0.000000
2 0.000000 4.850000 0.000000
3 0.000000 24.250000 0.000000
ITEM: TIMESTEP
0
ITEM: NUMBER OF ATOMS
3
ITEM: BOX BOUNDS xy xz yz
0.000000 10.000000 0.000000
0.000000 19.500000 0.000000
0.000000 10.000000 0.000000
ITEM: ATOMS id xu yu zu
1 0.000000 0.000000 0.000000
2 0.000000 4.875000 0.000000
3 0.000000 24.375000 0.000000
ITEM: TIMESTEP
0
ITEM: NUMBER OF ATOMS
3
ITEM: BOX BOUNDS xy xz yz
0.000000 10.000000 0.000000
0.000000 19.600000 0.000000
0.000000 10.000000 0.000000
ITEM: ATOMS id xu yu zu
1 0.000000 0.000000 0.000000
2 0.000000 4.900000 0.000000
3 0.000000 24.500000 0.000000
ITEM: TIMESTEP
0
ITEM: NUMBER OF ATOMS
3
ITEM: BOX BOUNDS xy xz yz
0.000000 10.000000 0.000000
0.000000 19.700000 0.000000
0.000000 10.000000 0.000000
ITEM: ATOMS id xu yu zu
1 0.000000 0.000000 0.000000
2 0.000000 4.925000 0.000000
3 0.000000 24.625000 0.000000
ITEM: TIMESTEP
0
ITEM: NUMBER OF ATOMS
3
ITEM: BOX BOUNDS xy xz yz
0.000000 10.000000 0.000000
0.000000 19.800000 0.000000
0.000000 10.000000 0.000000
ITEM: ATOMS id xu yu zu
1 0.000000 0.000000 0.000000
2 0.000000 4.950000 0.000000
3 0.000000 24.750000 0.000000
ITEM: TIMESTEP
0
ITEM: NUMBER OF ATOMS
3
ITEM: BOX BOUNDS xy xz yz
0.000000 10.000000 0.000000
0.000000 19.900000 0.000000
0.000000 10.000000 0.000000
ITEM: ATOMS id xu yu zu
1 0.000000 0.000000 0.000000
2 0.000000 4.975000 0.000000
3 0.000000 24.875000 0.000000
ITEM: TIMESTEP
0
ITEM: NUMBER OF ATOMS
3
ITEM: BOX BOUNDS xy xz yz
0.000000 10.000000 0.000000
0.000000 20.000000 0.000000
0.000000 10.000000 0.000000
ITEM: ATOMS id xu yu zu
1 0.000000 0.000000 0.000000
2 0.000000 5.000000 0.000000
3 0.000000 25.000000 0.000000
