ITEM: TIMESTEP
0
ITEM: NUMBER OF ATOMS
3
ITEM: BOX BOUNDS xy xz yz
0.000000 10.000000 0.000000
0.000000 10.000000 0.000000
0.000000 10.000000 0.000000
ITEM: ATOMS id xu yu zu
1 0.000000 0.000000 0.000000
2 1.000000 0.000000 0.000000
3 10.000000 0.000000 0.000000
ITEM: TIMESTEP
0
ITEM: NUMBER OF ATOMS
3
ITEM: BOX BOUNDS xy xz yz
0.000000 10.000000 0.000000
0.000000 10.000000 0.000000
0.000000 10.000000 0.000000
ITEM: ATOMS id xu yu zu
1 0.000000 0.000000 0.000000
2 0.000000 2.500000 0.000000
3 0.000000 12.500000 0.000000
ITEM: TIMESTEP
0
ITEM: NUMBER OF ATOMS
3
ITEM: BOX BOUNDS xy xz yz
0.000000 10.100000 0.100000
0.000000 10.000000 0.000000
0.000000 10.000000 0.000000
ITEM: ATOMS id xu yu zu
1 0.000000 0.000000 0.000000
2 0.025000 2.500000 0.000000
3 0.125000 12.500000 0.000000
ITEM: TIMESTEP
0
ITEM: NUMBER OF ATOMS
3
ITEM: BOX BOUNDS xy xz yz
0.000000 10.200000 0.200000
0.000000 10.000000 0.000000
0.000000 10.000000 0.000000
ITEM: ATOMS id xu yu zu
1 0.000000 0.000000 0.000000
2 0.050000 2.500000 0.000000
3 0.250000 12.500000 0.000000
ITEM: TIMESTEP
0
ITEM: NUMBER OF ATOMS
3
ITEM: BOX BOUNDS xy xz yz
0.000000 10.300000 0.300000
0.000000 10.000000 0.000000
0.000000 10.000000 0.000000
ITEM: ATOMS id xu yu zu
1 0.000000 0.000000 0.000000
2 0.075000 2.500000 0.000000
3 0.375000 12.500000 0.000000
ITEM: TIMESTEP
0
ITEM: NUMBER OF ATOMS
3
ITEM: BOX BOUNDS xy xz yz
0.000000 10.400000 0.400000
0.000000 10.000000 0.000000
0.000000 10.000000 0.000000
ITEM: ATOMS id xu yu zu
1 0.000000 0.000000 0.000000
2 0.100000 2.500000 0.000000
3 0.500000 12.500000 0.000000
ITEM: TIMESTEP
0
ITEM: NUMBER OF ATOMS
3
ITEM: BOX BOUNDS xy xz yz
0.000000 10.500000 0.500000
0.000000 10.000000 0.000000
0.000000 10.000000 0.000000
ITEM: ATOMS id xu yu zu
1 0.000000 0.000000 0.000000
2 0.125000 2.500000 0.000000
3 0.625000 12.500000 0.000000
ITEM: TIMESTEP
0
ITEM: NUMBER OF ATOMS
3
ITEM: BOX BOUNDS xy xz yz
0.000000 10.600000 0.600000
0.000000 10.000000 0.000000
0.000000 10.000000 0.000000
ITEM: ATOMS id xu yu zu
1 0.000000 0.000000 0.000000
2 0.150000 2.500000 0.000000
3 0.750000 12.500000 0.000000
ITEM: TIMESTEP
0
ITEM: NUMBER OF ATOMS
3
ITEM: BOX BOUNDS xy xz yz
0.000000 10.700000 0.700000
0.000000 10.000000 0.000000
0.000000 10.000000 0.000000
ITEM: ATOMS id xu yu zu
1 0.000000 0.000000 0.000000
2 0.175000 2.500000 0.000000
3 0.875000 12.500000 0.000000
ITEM: TIMESTEP
0
ITEM: NUMBER OF ATOMS
3
ITEM: BOX BOUNDS xy xz yz
0.000000 10.800000 0.800000
0.000000 10.000000 0.000000
0.000000 10.000000 0.000000
ITEM: ATOMS id xu yu zu
1 0.000000 0.000000 0.000000
2 0.200000 2.500000 0.000000
3 1.000000 12.500000 0.000000
ITEM: TIMESTEP
0
ITEM: NUMBER OF ATOMS
3
ITEM: BOX BOUNDS xy xz yz
0.000000 10.900000 0.900000
0.000000 10.000000 0.000000
0.000000 10.000000 0.000000
ITEM: ATOMS id xu yu zu
1 0.000000 0.000000 0.000000
2 0.225000 2.500000 0.000000
3 1.125000 12.500000 0.000000
ITEM: TIMESTEP
0
ITEM: NUMBER OF ATOMS
3
ITEM: BOX BOUNDS xy xz yz
0.000000 11.000000 1.000000
0.000000 10.000000 0.000000
0.000000 10.000000 0.000000
ITEM: ATOMS id xu yu zu
1 0.000000 0.000000 0.000000
2 0.250000 2.500000 0.000000
3 1.250000 12.500000 0.000000
ITEM: TIMESTEP
0
ITEM: NUMBER OF ATOMS
3
ITEM: BOX BOUNDS xy xz yz
0.000000 11.100000 1.100000
0.000000 10.000000 0.000000
0.000000 10.000000 0.000000
ITEM: ATOMS id xu yu zu
1 0.000000 0.000000 0.000000
2 0.275000 2.500000 0.000000
3 1.375000 12.500000 0.000000
ITEM: TIMESTEP
0
ITEM: NUMBER OF ATOMS
3
ITEM: BOX BOUNDS xy xz yz
0.000000 11.200000 1.200000
0.000000 10.000000 0.000000
0.000000 10.000000 0.000000
ITEM: ATOMS id xu yu zu
1 0.000000 0.000000 0.000000
2 0.300000 2.500000 0.000000
3 1.500000 12.500000 0.000000
ITEM: TIMESTEP
0
ITEM: NUMBER OF ATOMS
3
ITEM: BOX BOUNDS xy xz yz
0.000000 11.300000 1.300000
0.000000 10.000000 0.000000
0.000000 10.000000 0.000000
ITEM: ATOMS id xu yu zu
1 0.000000 0.000000 0.000000
2 0.325000 2.500000 0.000000
3 1.625000 12.500000 0.000000
ITEM: TIMESTEP
0
ITEM: NUMBER OF ATOMS
3
ITEM: BOX BOUNDS xy xz yz
0.000000 11.400000 1.400000
0.000000 10.000000 0.000000
0.000000 10.000000 0.000000
ITEM: ATOMS id xu yu zu
1 0.000000 0.000000 0.000000
2 0.350000 2.500000 0.000000
3 1.750000 12.500000 0.000000
ITEM: TIMESTEP
0
ITEM: NUMBER OF ATOMS
3
ITEM: BOX BOUNDS xy xz yz
0.000000 11.500000 1.500000
0.000000 10.000000 0.000000
0.000000 10.000000 0.000000
ITEM: ATOMS id xu yu zu
1 0.000000 0.000000 0.000000
2 0.375000 2.500000 0.000000
3 1.875000 12.500000 0.000000
ITEM: TIMESTEP
0
ITEM: NUMBER OF ATOMS
3
ITEM: BOX BOUNDS xy xz yz
0.000000 11.600000 1.600000
0.000000 10.000000 0.000000
0.000000 10.000000 0.000000
ITEM: ATOMS id xu yu zu
1 0.000000 0.000000 0.000000
2 0.400000 2.500000 0.000000
3 2.000000 12.500000 0.000000
ITEM: TIMESTEP
0
ITEM: NUMBER OF ATOMS
3
ITEM: BOX BOUNDS xy xz yz
0.000000 11.700000 1.700000
0.000000 10.000000 0.000000
0.000000 10.000000 0.000000
ITEM: ATOMS id xu yu zu
1 0.000000 0.000000 0.000000
2 0.425000 2.500000 0.000000
3 2.125000 12.500000 0.000000
ITEM: TIMESTEP
0
ITEM: NUMBER OF ATOMS
3
ITEM: BOX BOUNDS xy xz yz
0.000000 11.800000 1.800000
0.000000 10.000000 0.000000
0.000000 10.000000 0.000000
ITEM: ATOMS id xu yu zu
1 0.000000 0.000000 0.000000
2 0.450000 2.500000 0.000000
3 2.250000 12.500000 0.000000
ITEM: TIMESTEP
0
ITEM: NUMBER OF ATOMS
3
ITEM: BOX BOUNDS xy xz yz
0.000000 11.900000 1.900000
0.000000 10.000000 0.000000
0.000000 10.000000 0.000000
ITEM: ATOMS id xu yu zu
1 0.000000 0.000000 0.000000
2 0.475000 2.500000 0.000000
3 2.375000 12.500000 0.000000
ITEM: TIMESTEP
0
ITEM: NUMBER OF ATOMS
3
ITEM: BOX BOUNDS xy xz yz
0.000000 12.000000 2.000000
0.000000 10.000000 0.000000
0.000000 10.000000 0.000000
ITEM: ATOMS id xu yu zu
1 0.000000 0.000000 0.000000
2 0.500000 2.500000 0.000000
3 2.500000 12.500000 0.000000
ITEM: TIMESTEP
0
ITEM: NUMBER OF ATOMS
3
ITEM: BOX BOUNDS xy xz yz
0.000000 12.100000 2.100000
0.000000 10.000000 0.000000
0.000000 10.000000 0.000000
ITEM: ATOMS id xu yu zu
1 0.000000 0.000000 0.000000
2 0.525000 2.500000 0.000000
3 2.625000 12.500000 0.000000
ITEM: TIMESTEP
0
ITEM: NUMBER OF ATOMS
3
ITEM: BOX BOUNDS xy xz yz
0.000000 12.200000 2.200000
0.000000 10.000000 0.000000
0.000000 10.000000 0.000000
ITEM: ATOMS id xu yu zu
1 0.000000 0.000000 0.000000
2 0.550000 2.500000 0.000000
3 2.750000 12.500000 0.000000
ITEM: TIMESTEP
0
ITEM: NUMBER OF ATOMS
3
ITEM: BOX BOUNDS xy xz yz
0.000000 12.300000 2.300000
0.000000 10.000000 0.000000
0.000000 10.000000 0.000000
ITEM: ATOMS id xu yu zu
1 0.000000 0.000000 0.000000
2 0.575000 2.500000 0.000000
3 2.875000 12.500000 0.000000
ITEM: TIMESTEP
0
ITEM: NUMBER OF ATOMS
3
ITEM: BOX BOUNDS xy xz yz
0.000000 12.400000 2.400000
0.000000 10.000000 0.000000
0.000000 10.000000 0.000000
ITEM: ATOMS id xu yu zu
1 0.000000 0.000000 0.000000
2 0.600000 2.500000 0.000000
3 3.000000 12.500000 0.000000
ITEM: TIMESTEP
0
ITEM: NUMBER OF ATOMS
3
ITEM: BOX BOUNDS xy xz yz
0.000000 12.500000 2.500000
0.000000 10.000000 0.000000
0.000000 10.000000 0.000000
ITEM: ATOMS id xu yu zu
1 0.000000 0.000000 0.000000
2 0.625000 2.500000 0.000000
3 3.125000 12.500000 0.000000
ITEM: TIMESTEP
0
ITEM: NUMBER OF ATOMS
3
ITEM: BOX BOUNDS xy xz yz
0.000000 12.600000 2.600000
0.000000 10.000000 0.000000
0.000000 10.000000 0.000000
ITEM: ATOMS id xu yu zu
1 0.000000 0.000000 0.000000
2 0.650000 2.500000 0.000000
3 3.250000 12.500000 0.000000
ITEM: TIMESTEP
0
ITEM: NUMBER OF ATOMS
3
ITEM: BOX BOUNDS xy xz yz
0.000000 12.700000 2.700000
0.000000 10.000000 0.000000
0.000000 10.000000 0.000000
ITEM: ATOMS id xu yu zu
1 0.000000 0.000000 0.000000
2 0.675000 2.500000 0.000000
3 3.375000 12.500000 0.000000
ITEM: TIMESTEP
0
ITEM: NUMBER OF ATOMS
3
ITEM: BOX BOUNDS xy xz yz
0.000000 12.800000 2.800000
0.000000 10.000000 0.000000
0.000000 10.000000 0.000000
ITEM: ATOMS id xu yu zu
1 0.000000 0.000000 0.000000
2 0.700000 2.500000 0.000000
3 3.500000 12.500000 0.000000
ITEM: TIMESTEP
0
ITEM: NUMBER OF ATOMS
3
ITEM: BOX BOUNDS xy xz yz
0.000000 12.900000 2.900000
0.000000 10.000000 0.000000
0.000000 10.000000 0.000000
ITEM: ATOMS id xu yu zu
1 0.000000 0.000000 0.000000
2 0.725000 2.500000 0.000000
3 3.625000 12.500000 0.000000
ITEM: TIMESTEP
0
ITEM: NUMBER OF ATOMS
3
ITEM: BOX BOUNDS xy xz yz
0.000000 13.000000 3.000000
0.000000 10.000000 0.000000
0.000000 10.000000 0.000000
ITEM: ATOMS id xu yu zu
1 0.000000 0.000000 0.000000
2 0.750000 2.500000 0.000000
3 3.750000 12.500000 0.000000
ITEM: TIMESTEP
0
ITEM: NUMBER OF ATOMS
3
ITEM: BOX BOUNDS xy xz yz
0.000000 13.100000 3.100000
0.000000 10.000000 0.000000
0.000000 10.000000 0.000000
ITEM: ATOMS id xu yu zu
1 0.000000 0.000000 0.000000
2 0.775000 2.500000 0.000000
3 3.875000 12.500000 0.000000
ITEM: TIMESTEP
0
ITEM: NUMBER OF ATOMS
3
ITEM: BOX BOUNDS xy xz yz
0.000000 13.200000 3.200000
0.000000 10.000000 0.000000
0.000000 10.000000 0.000000
ITEM: ATOMS id xu yu zu
1 0.000000 0.000000 0.000000
2 0.800000 2.500000 0.000000
3 4.000000 12.500000 0.000000
ITEM: TIMESTEP
0
ITEM: NUMBER OF ATOMS
3
ITEM: BOX BOUNDS xy xz yz
0.000000 13.300000 3.300000
0.000000 10.000000 0.000000
0.000000 10.000000 0.000000
ITEM: ATOMS id xu yu zu
1 0.000000 0.000000 0.000000
2 0.825000 2.500000 0.000000
3 4.125000 12.500000 0.000000
ITEM: TIMESTEP
0
ITEM: NUMBER OF ATOMS
3
ITEM: BOX BOUNDS xy xz yz
0.000000 13.400000 3.400000
0.000000 10.000000 0.000000
0.000000 10.000000 0.000000
ITEM: ATOMS id xu yu zu
1 0.000000 0.000000 0.000000
2 0.850000 2.500000 0.000000
3 4.250000 12.500000 0.000000
ITEM: TIMESTEP
0
ITEM: NUMBER OF ATOMS
3
ITEM: BOX BOUNDS xy xz yz
0.000000 13.500000 3.500000
0.000000 10.000000 0.000000
0.000000 10.000000 0.000000
ITEM: ATOMS id xu yu zu
1 0.000000 0.000000 0.000000
2 0.875000 2.500000 0.000000
3 4.375000 12.500000 0.000000
ITEM: TIMESTEP
0
ITEM: NUMBER OF ATOMS
3
ITEM: BOX BOUNDS xy xz yz
0.000000 13.600000 3.600000
0.000000 10.000000 0.000000
0.000000 10.000000 0.000000
ITEM: ATOMS id xu yu zu
1 0.000000 0.000000 0.000000
2 0.900000 2.500000 0.000000
3 4.500000 12.500000 0.000000
ITEM: TIMESTEP
0
ITEM: NUMBER OF ATOMS
3
ITEM: BOX BOUNDS xy xz yz
0.000000 13.700000 3.700000
0.000000 10.000000 0.000000
0.000000 10.000000 0.000000
ITEM: ATOMS id xu yu zu
1 0.000000 0.000000 0.000000
2 0.925000 2.500000 0.000000
3 4.625000 12.500000 0.000000
ITEM: TIMESTEP
0
ITEM: NUMBER OF ATOMS
3
ITEM: BOX BOUNDS xy xz yz
0.000000 13.800000 3.800000
0.000000 10.000000 0.000000
0.000000 10.000000 0.000000
ITEM: ATOMS id xu yu zu
1 0.000000 0.000000 0.000000
2 0.950000 2.500000 0.000000
3 4.750000 12.500000 0.000000
ITEM: TIMESTEP
0
ITEM: NUMBER OF ATOMS
3
ITEM: BOX BOUNDS xy xz yz
0.000000 13.900000 3.900000
0.000000 10.000000 0.000000
0.000000 10.000000 0.000000
ITEM: ATOMS id xu yu zu
1 0.000000 0.000000 0.000000
2 0.975000 2.500000 0.000000
3 4.875000 12.500000 0.000000
ITEM: TIMESTEP
0
ITEM: NUMBER OF ATOMS
3
ITEM: BOX BOUNDS xy xz yz
0.000000 14.000000 4.000000
0.000000 10.000000 0.000000
0.000000 10.000000 0.000000
ITEM: ATOMS id xu yu zu
1 0.000000 0.000000 0.000000
2 1.000000 2.500000 0.000000
3 5.000000 12.500000 0.000000
ITEM: TIMESTEP
0
ITEM: NUMBER OF ATOMS
3
ITEM: BOX BOUNDS xy xz yz
0.000000 14.100000 4.100000
0.000000 10.000000 0.000000
0.000000 10.000000 0.000000
ITEM: ATOMS id xu yu zu
1 0.000000 0.000000 0.000000
2 1.025000 2.500000 0.000000
3 5.125000 12.500000 0.000000
ITEM: TIMESTEP
0
ITEM: NUMBER OF ATOMS
3
ITEM: BOX BOUNDS xy xz yz
0.000000 14.200000 4.200000
0.000000 10.000000 0.000000
0.000000 10.000000 0.000000
ITEM: ATOMS id xu yu zu
1 0.000000 0.000000 0.000000
2 1.050000 2.500000 0.000000
3 5.250000 12.500000 0.000000
ITEM: TIMESTEP
0
ITEM: NUMBER OF ATOMS
3
ITEM: BOX BOUNDS xy xz yz
0.000000 14.300000 4.300000
0.000000 10.000000 0.000000
0.000000 10.000000 0.000000
ITEM: ATOMS id xu yu zu
1 0.000000 0.000000 0.000000
2 1.075000 2.500000 0.000000
3 5.375000 12.500000 0.000000
ITEM: TIMESTEP
0
ITEM: NUMBER OF ATOMS
3
ITEM: BOX BOUNDS xy xz yz
0.000000 14.400000 4.400000
0.000000 10.000000 0.000000
0.000000 10.000000 0.000000
ITEM: ATOMS id xu yu zu
1 0.000000 0.000000 0.000000
2 1.100000 2.500000 0.000000
3 5.500000 12.500000 0.000000
ITEM: TIMESTEP
0
ITEM: NUMBER OF ATOMS
3
ITEM: BOX BOUNDS xy xz yz
0.000000 14.500000 4.500000
0.000000 10.000000 0.000000
0.000000 10.000000 0.000000
ITEM: ATOMS id xu yu zu
1 0.000000 0.000000 0.000000
2 1.125000 2.500000 0.000000
3 5.625000 12.500000 0.000000
ITEM: TIMESTEP
0
ITEM: NUMBER OF ATOMS
3
ITEM: BOX BOUNDS xy xz yz
0.000000 14.600000 4.600000
0.000000 10.000000 0.000000
0.000000 10.000000 0.000000
ITEM: ATOMS id xu yu zu
1 0.000000 0.000000 0.000000
2 1.150000 2.500000 0.000000
3 5.750000 12.500000 0.000000
ITEM: TIMESTEP
0
ITEM: NUMBER OF ATOMS
3
ITEM: BOX BOUNDS xy xz yz
0.000000 14.700000 4.700000
0.000000 10.000000 0.000000
0.000000 10.000000 0.000000
ITEM: ATOMS id xu yu zu
1 0.000000 0.000000 0.000000
2 1.175000 2.500000 0.000000
3 5.875000 12.500000 0.000000
ITEM: TIMESTEP
0
ITEM: NUMBER OF ATOMS
3
ITEM: BOX BOUNDS xy xz yz
0.000000 14.800000 4.800000
0.000000 10.000000 0.000000
0.000000 10.000000 0.000000
ITEM: ATOMS id xu yu zu
1 0.000000 0.000000 0.000000
2 1.200000 2.500000 0.000000
3 6.000000 12.500000 0.000000
ITEM: TIMESTEP
0
ITEM: NUMBER OF ATOMS
3
ITEM: BOX BOUNDS xy xz yz
0.000000 14.900000 4.900000
0.000000 10.000000 0.000000
0.000000 10.000000 0.000000
ITEM: ATOMS id xu yu zu
1 0.000000 0.000000 0.000000
2 1.225000 2.500000 0.000000
3 6.125000 12.500000 0.000000
ITEM: TIMESTEP
0
ITEM: NUMBER OF ATOMS
3
ITEM: BOX BOUNDS xy xz yz
0.000000 15.000000 5.000000
0.000000 10.000000 0.000000
0.000000 10.000000 0.000000
ITEM: ATOMS id xu yu zu
1 0.000000 0.000000 0.000000
2 1.250000 2.500000 0.000000
3 6.250000 12.500000 0.000000
ITEM: TIMESTEP
0
ITEM: NUMBER OF ATOMS
3
ITEM: BOX BOUNDS xy xz yz
-4.900000 10.000000 -4.900000
0.000000 10.000000 0.000000
0.000000 10.000000 0.000000
ITEM: ATOMS id xu yu zu
1 0.000000 0.000000 0.000000
2 1.275000 2.500000 0.000000
3 6.375000 12.500000 0.000000
ITEM: TIMESTEP
0
ITEM: NUMBER OF ATOMS
3
ITEM: BOX BOUNDS xy xz yz
-4.800000 10.000000 -4.800000
0.000000 10.000000 0.000000
0.000000 10.000000 0.000000
ITEM: ATOMS id xu yu zu
1 0.000000 0.000000 0.000000
2 1.300000 2.500000 0.000000
3 6.500000 12.500000 0.000000
ITEM: TIMESTEP
0
ITEM: NUMBER OF ATOMS
3
ITEM: BOX BOUNDS xy xz yz
-4.700000 10.000000 -4.700000
0.000000 10.000000 0.000000
0.000000 10.000000 0.000000
ITEM: ATOMS id xu yu zu
1 0.000000 0.000000 0.000000
2 1.325000 2.500000 0.000000
3 6.625000 12.500000 0.000000
ITEM: TIMESTEP
0
ITEM: NUMBER OF ATOMS
3
ITEM: BOX BOUNDS xy xz yz
-4.600000 10.000000 -4.600000
0.000000 10.000000 0.000000
0.000000 10.000000 0.000000
ITEM: ATOMS id xu yu zu
1 0.000000 0.000000 0.000000
2 1.350000 2.500000 0.000000
3 6.750000 12.500000 0.000000
ITEM: TIMESTEP
0
ITEM: NUMBER OF ATOMS
3
ITEM: BOX BOUNDS xy xz yz
-4.500000 10.000000 -4.500000
0.000000 10.000000 0.000000
0.000000 10.000000 0.000000
ITEM: ATOMS id xu yu zu
1 0.000000 0.000000 0.000000
2 1.375000 2.500000 0.000000
3 6.875000 12.500000 0.000000
ITEM: TIMESTEP
0
ITEM: NUMBER OF ATOMS
3
ITEM: BOX BOUNDS xy xz yz
-4.400000 10.000000 -4.400000
0.000000 10.000000 0.000000
0.000000 10.000000 0.000000
ITEM: ATOMS id xu yu zu
1 0.000000 0.000000 0.000000
2 1.400000 2.500000 0.000000
3 7.000000 12.500000 0.000000
ITEM: TIMESTEP
0
ITEM: NUMBER OF ATOMS
3
ITEM: BOX BOUNDS xy xz yz
-4.300000 10.000000 -4.300000
0.000000 10.000000 0.000000
0.000000 10.000000 0.000000
ITEM: ATOMS id xu yu zu
1 0.000000 0.000000 0.000000
2 1.425000 2.500000 0.000000
3 7.125000 12.500000 0.000000
ITEM: TIMESTEP
0
ITEM: NUMBER OF ATOMS
3
ITEM: BOX BOUNDS xy xz yz
-4.200000 10.000000 -4.200000
0.000000 10.000000 0.000000
0.000000 10.000000 0.000000
ITEM: ATOMS id xu yu zu
1 0.000000 0.000000 0.000000
2 1.450000 2.500000 0.000000
3 7.250000 12.500000 0.000000
ITEM: TIMESTEP
0
ITEM: NUMBER OF ATOMS
3
ITEM: BOX BOUNDS xy xz yz
-4.100000 10.000000 -4.100000
0.000000 10.000000 0.000000
0.000000 10.000000 0.000000
ITEM: ATOMS id xu yu zu
1 0.000000 0.000000 0.000000
2 1.475000 2.500000 0.000000
3 7.375000 12.500000 0.000000
ITEM: TIMESTEP
0
ITEM: NUMBER OF ATOMS
3
ITEM: BOX BOUNDS xy xz yz
-4.000000 10.000000 -4.000000
0.000000 10.000000 0.000000
0.000000 10.000000 0.000000
ITEM: ATOMS id xu yu zu
1 0.000000 0.000000 0.000000
2 1.500000 2.500000 0.000000
3 7.500000 12.500000 0.000000
ITEM: TIMESTEP
0
ITEM: NUMBER OF ATOMS
3
ITEM: BOX BOUNDS xy xz yz
-3.900000 10.000000 -3.900000
0.000000 10.000000 0.000000
0.000000 10.000000 0.000000
ITEM: ATOMS id xu yu zu
1 0.000000 0.000000 0.000000
2 1.525000 2.500000 0.000000
3 7.625000 12.500000 0.000000
ITEM: TIMESTEP
0
ITEM: NUMBER OF ATOMS
3
ITEM: BOX BOUNDS xy xz yz
-3.800000 10.000000 -3.800000
0.000000 10.000000 0.000000
0.000000 10.000000 0.000000
ITEM: ATOMS id xu yu zu
1 0.000000 0.000000 0.000000
2 1.550000 2.500000 0.000000
3 7.750000 12.500000 0.000000
ITEM: TIMESTEP
0
ITEM: NUMBER OF ATOMS
3
ITEM: BOX BOUNDS xy xz yz
-3.700000 10.000000 -3.700000
0.000000 10.000000 0.000000
0.000000 10.000000 0.000000
ITEM: ATOMS id xu yu zu
1 0.000000 0.000000 0.000000
2 1.575000 2.500000 0.000000
3 7.875000 12.500000 0.000000
ITEM: TIMESTEP
0
ITEM: NUMBER OF ATOMS
3
ITEM: BOX BOUNDS xy xz yz
-3.600000 10.000000 -3.600000
0.000000 10.000000 0.000000
0.000000 10.000000 0.000000
ITEM: ATOMS id xu yu zu
1 0.000000 0.000000 0.000000
2 1.600000 2.500000 0.000000
3 8.000000 12.500000 0.000000
ITEM: TIMESTEP
0
ITEM: NUMBER OF ATOMS
3
ITEM: BOX BOUNDS xy xz yz
-3.500000 10.000000 -3.500000
0.000000 10.000000 0.000000
0.000000 10.000000 0.000000
ITEM: ATOMS id xu yu zu
1 0.000000 0.000000 0.000000
2 1.625000 2.500000 0.000000
3 8.125000 12.500000 0.000000
ITEM: TIMESTEP
0
ITEM: NUMBER OF ATOMS
3
ITEM: BOX BOUNDS xy xz yz
-3.400000 10.000000 -3.400000
0.000000 10.000000 0.000000
0.000000 10.000000 0.000000
ITEM: ATOMS id xu yu zu
1 0.000000 0.000000 0.000000
2 1.650000 2.500000 0.000000
3 8.250000 12.500000 0.000000
ITEM: TIMESTEP
0
ITEM: NUMBER OF ATOMS
3
ITEM: BOX BOUNDS xy xz yz
-3.300000 10.000000 -3.300000
0.000000 10.000000 0.000000
0.000000 10.000000 0.000000
ITEM: ATOMS id xu yu zu
1 0.000000 0.000000 0.000000
2 1.675000 2.500000 0.000000
3 8.375000 12.500000 0.000000
ITEM: TIMESTEP
0
ITEM: NUMBER OF ATOMS
3
ITEM: BOX BOUNDS xy xz yz
-3.200000 10.000000 -3.200000
0.000000 10.000000 0.000000
0.000000 10.000000 0.000000
ITEM: ATOMS id xu yu zu
1 0.000000 0.000000 0.000000
2 1.700000 2.500000 0.000000
3 8.500000 12.500000 0.000000
ITEM: TIMESTEP
0
ITEM: NUMBER OF ATOMS
3
ITEM: BOX BOUNDS xy xz yz
-3.100000 10.000000 -3.100000
0.000000 10.000000 0.000000
0.000000 10.000000 0.000000
ITEM: ATOMS id xu yu zu
1 0.000000 0.000000 0.000000
2 1.725000 2.500000 0.000000
3 8.625000 12.500000 0.000000
ITEM: TIMESTEP
0
ITEM: NUMBER OF ATOMS
3
ITEM: BOX BOUNDS xy xz yz
-3.000000 10.000000 -3.000000
0.000000 10.000000 0.000000
0.000000 10.000000 0.000000
ITEM: ATOMS id xu yu zu
1 0.000000 0.000000 0.000000
2 1.750000 2.500000 0.000000
3 8.750000 12.500000 0.000000
ITEM: TIMESTEP
0
ITEM: NUMBER OF ATOMS
3
ITEM: BOX BOUNDS xy xz yz
-2.900000 10.000000 -2.900000
0.000000 10.000000 0.000000
0.000000 10.000000 0.000000
ITEM: ATOMS id xu yu zu
1 0.000000 0.000000 0.000000
2 1.775000 2.500000 0.000000
3 8.875000 12.500000 0.000000
ITEM: TIMESTEP
0
ITEM: NUMBER OF ATOMS
3
ITEM: BOX BOUNDS xy xz yz
-2.800000 10.000000 -2.800000
0.000000 10.000000 0.000000
0.000000 10.000000 0.000000
ITEM: ATOMS id xu yu zu
1 0.000000 0.000000 0.000000
2 1.800000 2.500000 0.000000
3 9.000000 12.500000 0.000000
ITEM: TIMESTEP
0
ITEM: NUMBER OF ATOMS
3
ITEM: BOX BOUNDS xy xz yz
-2.700000 10.000000 -2.700000
0.000000 10.000000 0.000000
0.000000 10.000000 0.000000
ITEM: ATOMS id xu yu zu
1 0.000000 0.000000 0.000000
2 1.825000 2.500000 0.000000
3 9.125000 12.500000 0.000000
ITEM: TIMESTEP
0
ITEM: NUMBER OF ATOMS
3
ITEM: BOX BOUNDS xy xz yz
-2.600000 10.000000 -2.600000
0.000000 10.000000 0.000000
0.000000 10.000000 0.000000
ITEM: ATOMS id xu yu zu
1 0.000000 0.000000 0.000000
2 1.850000 2.500000 0.000000
3 9.250000 12.500000 0.000000
ITEM: TIMESTEP
0
ITEM: NUMBER OF ATOMS
3
ITEM: BOX BOUNDS xy xz yz
-2.500000 10.000000 -2.500000
0.000000 10.000000 0.000000
0.000000 10.000000 0.000000
ITEM: ATOMS id xu yu zu
1 0.000000 0.000000 0.000000
2 1.875000 2.500000 0.000000
3 9.375000 12.500000 0.000000
ITEM: TIMESTEP
0
ITEM: NUMBER OF ATOMS
3
ITEM: BOX BOUNDS xy xz yz
-2.400000 10.000000 -2.400000
0.000000 10.000000 0.000000
0.000000 10.000000 0.000000
ITEM: ATOMS id xu yu zu
1 0.000000 0.000000 0.000000
2 1.900000 2.500000 0.000000
3 9.500000 12.500000 0.000000
ITEM: TIMESTEP
0
ITEM: NUMBER OF ATOMS
3
ITEM: BOX BOUNDS xy xz yz
-2.300000 10.000000 -2.300000
0.000000 10.000000 0.000000
0.000000 10.000000 0.000000
ITEM: ATOMS id xu yu zu
1 0.000000 0.000000 0.000000
2 1.925000 2.500000 0.000000
3 9.625000 12.500000 0.000000
ITEM: TIMESTEP
0
ITEM: NUMBER OF ATOMS
3
ITEM: BOX BOUNDS xy xz yz
-2.200000 10.000000 -2.200000
0.000000 10.000000 0.000000
0.000000 10.000000 0.000000
ITEM: ATOMS id xu yu zu
1 0.000000 0.000000 0.000000
2 1.950000 2.500000 0.000000
3 9.750000 12.500000 0.000000
ITEM: TIMESTEP
0
ITEM: NUMBER OF ATOMS
3
ITEM: BOX BOUNDS xy xz yz
-2.100000 10.000000 -2.100000
0.000000 10.000000 0.000000
0.000000 10.000000 0.000000
ITEM: ATOMS id xu yu zu
1 0.000000 0.000000 0.000000
2 1.975000 2.500000 0.000000
3 9.875000 12.500000 0.000000
ITEM: TIMESTEP
0
ITEM: NUMBER OF ATOMS
3
ITEM: BOX BOUNDS xy xz yz
-2.000000 10.000000 -2.000000
0.000000 10.000000 0.000000
0.000000 10.000000 0.000000
ITEM: ATOMS id xu yu zu
1 0.000000 0.000000 0.000000
2 2.000000 2.500000 0.000000
3 10.000000 12.500000 0.000000
ITEM: TIMESTEP
0
ITEM: NUMBER OF ATOMS
3
ITEM: BOX BOUNDS xy xz yz
-1.900000 10.000000 -1.900000
0.000000 10.000000 0.000000
0.000000 10.000000 0.000000
ITEM: ATOMS id xu yu zu
1 0.000000 0.000000 0.000000
2 2.025000 2.500000 0.000000
3 10.125000 12.500000 0.000000
ITEM: TIMESTEP
0
ITEM: NUMBER OF ATOMS
3
ITEM: BOX BOUNDS xy xz yz
-1.800000 10.000000 -1.800000
0.000000 10.000000 0.000000
0.000000 10.000000 0.000000
ITEM: ATOMS id xu yu zu
1 0.000000 0.000000 0.000000
2 2.050000 2.500000 0.000000
3 10.250000 12.500000 0.000000
ITEM: TIMESTEP
0
ITEM: NUMBER OF ATOMS
3
ITEM: BOX BOUNDS xy xz yz
-1.700000 10.000000 -1.700000
0.000000 10.000000 0.000000
0.000000 10.000000 0.000000
ITEM: ATOMS id xu yu zu
1 0.000000 0.000000 0.000000
2 2.075000 2.500000 0.000000
3 10.375000 12.500000 0.000000
ITEM: TIMESTEP
0
ITEM: NUMBER OF ATOMS
3
ITEM: BOX BOUNDS xy xz yz
-1.600000 10.000000 -1.600000
0.000000 10.000000 0.000000
0.000000 10.000000 0.000000
ITEM: ATOMS id xu yu zu
1 0.000000 0.000000 0.000000
2 2.100000 2.500000 0.000000
3 10.500000 12.500000 0.000000
ITEM: TIMESTEP
0
ITEM: NUMBER OF ATOMS
3
ITEM: BOX BOUNDS xy xz yz
-1.500000 10.000000 -1.500000
0.000000 10.000000 0.000000
0.000000 10.000000 0.000000
ITEM: ATOMS id xu yu zu
1 0.000000 0.000000 0.000000
2 2.125000 2.500000 0.000000
3 10.625000 12.500000 0.000000
ITEM: TIMESTEP
0
ITEM: NUMBER OF ATOMS
3
ITEM: BOX BOUNDS xy xz yz
-1.400000 10.000000 -1.400000
0.000000 10.000000 0.000000
0.000000 10.000000 0.000000
ITEM: ATOMS id xu yu zu
1 0.000000 0.000000 0.000000
2 2.150000 2.500000 0.000000
3 10.750000 12.500000 0.000000
ITEM: TIMESTEP
0
ITEM: NUMBER OF ATOMS
3
ITEM: BOX BOUNDS xy xz yz
-1.300000 10.000000 -1.300000
0.000000 10.000000 0.000000
0.000000 10.000000 0.000000
ITEM: ATOMS id xu yu zu
1 0.000000 0.000000 0.000000
2 2.175000 2.500000 0.000000
3 10.875000 12.500000 0.000000
ITEM: TIMESTEP
0
ITEM: NUMBER OF ATOMS
3
ITEM: BOX BOUNDS xy xz yz
-1.200000 10.000000 -1.200000
0.000000 10.000000 0.000000
0.000000 10.000000 0.000000
ITEM: ATOMS id xu yu zu
1 0.000000 0.000000 0.000000
2 2.200000 2.500000 0.000000
3 11.000000 12.500000 0.000000
ITEM: TIMESTEP
0
ITEM: NUMBER OF ATOMS
3
ITEM: BOX BOUNDS xy xz yz
-1.100000 10.000000 -1.100000
0.000000 10.000000 0.000000
0.000000 10.000000 0.000000
ITEM: ATOMS id xu yu zu
1 0.000000 0.000000 0.000000
2 2.225000 2.500000 0.000000
3 11.125000 12.500000 0.000000
ITEM: TIMESTEP
0
ITEM: NUMBER OF ATOMS
3
ITEM: BOX BOUNDS xy xz yz
-1.000000 10.000000 -1.000000
0.000000 10.000000 0.000000
0.000000 10.000000 0.000000
ITEM: ATOMS id xu yu zu
1 0.000000 0.000000 0.000000
2 2.250000 2.500000 0.000000
3 11.250000 12.500000 0.000000
ITEM: TIMESTEP
0
ITEM: NUMBER OF ATOMS
3
ITEM: BOX BOUNDS xy xz yz
-0.900000 10.000000 -0.900000
0.000000 10.000000 0.000000
0.000000 10.000000 0.000000
ITEM: ATOMS id xu yu zu
1 0.000000 0.000000 0.000000
2 2.275000 2.500000 0.000000
3 11.375000 12.500000 0.000000
ITEM: TIMESTEP
0
ITEM: NUMBER OF ATOMS
3
ITEM: BOX BOUNDS xy xz yz
-0.800000 10.000000 -0.800000
0.000000 10.000000 0.000000
0.000000 10.000000 0.000000
ITEM: ATOMS id xu yu zu
1 0.000000 0.000000 0.000000
2 2.300000 2.500000 0.000000
3 11.500000 12.500000 0.000000
ITEM: TIMESTEP
0
ITEM: NUMBER OF ATOMS
3
ITEM: BOX BOUNDS xy xz yz
-0.700000 10.000000 -0.700000
0.000000 10.000000 0.000000
0.000000 10.000000 0.000000
ITEM: ATOMS id xu yu zu
1 0.000000 0.000000 0.000000
2 2.325000 2.500000 0.000000
3 11.625000 12.500000 0.000000
ITEM: TIMESTEP
0
ITEM: NUMBER OF ATOMS
3
ITEM: BOX BOUNDS xy xz yz
-0.600000 10.000000 -0.600000
0.000000 10.000000 0.000000
0.000000 10.000000 0.000000
ITEM: ATOMS id xu yu zu
1 0.000000 0.000000 0.000000
2 2.350000 2.500000 0.000000
3 11.750000 12.500000 0.000000
ITEM: TIMESTEP
0
ITEM: NUMBER OF ATOMS
3
ITEM: BOX BOUNDS xy xz yz
-0.500000 10.000000 -0.500000
0.000000 10.000000 0.000000
0.000000 10.000000 0.000000
ITEM: ATOMS id xu yu zu
1 0.000000 0.000000 0.000000
2 2.375000 2.500000 0.000000
3 11.875000 12.500000 0.000000
ITEM: TIMESTEP
0
ITEM: NUMBER OF ATOMS
3
ITEM: BOX BOUNDS xy xz yz
-0.400000 10.000000 -0.400000
0.000000 10.000000 0.000000
0.000000 10.000000 0.000000
ITEM: ATOMS id xu yu zu
1 0.000000 0.000000 0.000000
2 2.400000 2.500000 0.000000
3 12.000000 12.500000 0.000000
ITEM: TIMESTEP
0
ITEM: NUMBER OF ATOMS
3
ITEM: BOX BOUNDS xy xz yz
-0.300000 10.000000 -0.300000
0.000000 10.000000 0.000000
0.000000 10.000000 0.000000
ITEM: ATOMS id xu yu zu
1 0.000000 0.000000 0.000000
2 2.425000 2.500000 0.000000
3 12.125000 12.500000 0.000000
ITEM: TIMESTEP
0
ITEM: NUMBER OF ATOMS
3
ITEM: BOX BOUNDS xy xz yz
-0.200000 10.000000 -0.200000
0.000000 10.000000 0.000000
0.000000 10.000000 0.000000
ITEM: ATOMS id xu yu zu
1 0.000000 0.000000 0.000000
2 2.450000 2.500000 0.000000
3 12.250000 12.500000 0.000000
ITEM: TIMESTEP
0
ITEM: NUMBER OF ATOMS
3
ITEM: BOX BOUNDS xy xz yz
-0.100000 10.000000 -0.100000
0.000000 10.000000 0.000000
0.000000 10.000000 0.000000
ITEM: ATOMS id xu yu zu
1 0.000000 0.000000 0.000000
2 2.475000 2.500000 0.000000
3 12.375000 12.500000 0.000000
ITEM: TIMESTEP
0
ITEM: NUMBER OF ATOMS
3
ITEM: BOX BOUNDS xy xz yz
0.000000 10.000000 0.000000
0.000000 10.000000 0.000000
0.000000 10.000000 0.000000
ITEM: ATOMS id xu yu zu
1 0.000000 0.000000 0.000000
2 2.500000 2.500000 0.000000
3 12.500000 12.500000 0.000000
