ITEM: TIMESTEP
0
ITEM: NUMBER OF ATOMS
125
ITEM: BOX BOUNDS xy xz yz
0.000000 10.000000 0.000000
0.000000 10.000000 0.000000
0.000000 10.000000 0.000000
ITEM: ATOMS id xu yu zu
1 0.000000 0.000000 0.000000
2 0.000000 0.000000 2.500000
3 0.000000 0.000000 5.000000
4 0.000000 0.000000 7.500000
5 0.000000 0.000000 10.000000
6 0.000000 2.500000 0.000000
7 0.000000 2.500000 2.500000
8 0.000000 2.500000 5.000000
9 0.000000 2.500000 7.500000
10 0.000000 2.500000 10.000000
11 0.000000 5.000000 0.000000
12 0.000000 5.000000 2.500000
13 0.000000 5.000000 5.000000
14 0.000000 5.000000 7.500000
15 0.000000 5.000000 10.000000
16 0.000000 7.500000 0.000000
17 0.000000 7.500000 2.500000
18 0.000000 7.500000 5.000000
19 0.000000 7.500000 7.500000
20 0.000000 7.500000 10.000000
21 0.000000 10.000000 0.000000
22 0.000000 10.000000 2.500000
23 0.000000 10.000000 5.000000
24 0.000000 10.000000 7.500000
25 0.000000 10.000000 10.000000
26 2.500000 0.000000 0.000000
27 2.500000 0.000000 2.500000
28 2.500000 0.000000 5.000000
29 2.500000 0.000000 7.500000
30 2.500000 0.000000 10.000000
31 2.500000 2.500000 0.000000
32 2.500000 2.500000 2.500000
33 2.500000 2.500000 5.000000
34 2.500000 2.500000 7.500000
35 2.500000 2.500000 10.000000
36 2.500000 5.000000 0.000000
37 2.500000 5.000000 2.500000
38 2.500000 5.000000 5.000000
39 2.500000 5.000000 7.500000
40 2.500000 5.000000 10.000000
41 2.500000 7.500000 0.000000
42 2.500000 7.500000 2.500000
43 2.500000 7.500000 5.000000
44 2.500000 7.500000 7.500000
45 2.500000 7.500000 10.000000
46 2.500000 10.000000 0.000000
47 2.500000 10.000000 2.500000
48 2.500000 10.000000 5.000000
49 2.500000 10.000000 7.500000
50 2.500000 10.000000 10.000000
51 5.000000 0.000000 0.000000
52 5.000000 0.000000 2.500000
53 5.000000 0.000000 5.000000
54 5.000000 0.000000 7.500000
55 5.000000 0.000000 10.000000
56 5.000000 2.500000 0.000000
57 5.000000 2.500000 2.500000
58 5.000000 2.500000 5.000000
59 5.000000 2.500000 7.500000
60 5.000000 2.500000 10.000000
61 5.000000 5.000000 0.000000
62 5.000000 5.000000 2.500000
63 5.000000 5.000000 5.000000
64 5.000000 5.000000 7.500000
65 5.000000 5.000000 10.000000
66 5.000000 7.500000 0.000000
67 5.000000 7.500000 2.500000
68 5.000000 7.500000 5.000000
69 5.000000 7.500000 7.500000
70 5.000000 7.500000 10.000000
71 5.000000 10.000000 0.000000
72 5.000000 10.000000 2.500000
73 5.000000 10.000000 5.000000
74 5.000000 10.000000 7.500000
75 5.000000 10.000000 10.000000
76 7.500000 0.000000 0.000000
77 7.500000 0.000000 2.500000
78 7.500000 0.000000 5.000000
79 7.500000 0.000000 7.500000
80 7.500000 0.000000 10.000000
81 7.500000 2.500000 0.000000
82 7.500000 2.500000 2.500000
83 7.500000 2.500000 5.000000
84 7.500000 2.500000 7.500000
85 7.500000 2.500000 10.000000
86 7.500000 5.000000 0.000000
87 7.500000 5.000000 2.500000
88 7.500000 5.000000 5.000000
89 7.500000 5.000000 7.500000
90 7.500000 5.000000 10.000000
91 7.500000 7.500000 0.000000
92 7.500000 7.500000 2.500000
93 7.500000 7.500000 5.000000
94 7.500000 7.500000 7.500000
95 7.500000 7.500000 10.000000
96 7.500000 10.000000 0.000000
97 7.500000 10.000000 2.500000
98 7.500000 10.000000 5.000000
99 7.500000 10.000000 7.500000
100 7.500000 10.000000 10.000000
101 10.000000 0.000000 0.000000
102 10.000000 0.000000 2.500000
103 10.000000 0.000000 5.000000
104 10.000000 0.000000 7.500000
105 10.000000 0.000000 10.000000
106 10.000000 2.500000 0.000000
107 10.000000 2.500000 2.500000
108 10.000000 2.500000 5.000000
109 10.000000 2.500000 7.500000
110 10.000000 2.500000 10.000000
111 10.000000 5.000000 0.000000
112 10.000000 5.000000 2.500000
113 10.000000 5.000000 5.000000
114 10.000000 5.000000 7.500000
115 10.000000 5.000000 10.000000
116 10.000000 7.500000 0.000000
117 10.000000 7.500000 2.500000
118 10.000000 7.500000 5.000000
119 10.000000 7.500000 7.500000
120 10.000000 7.500000 10.000000
121 10.000000 10.000000 0.000000
122 10.000000 10.000000 2.500000
123 10.000000 10.000000 5.000000
124 10.000000 10.000000 7.500000
125 10.000000 10.000000 10.000000
ITEM: TIMESTEP
0
ITEM: NUMBER OF ATOMS
125
ITEM: BOX BOUNDS xy xz yz
-6.000000 15.000000 5.000000
0.000000 12.000000 -6.000000
0.000000 10.000000 2.000000
ITEM: ATOMS id xu yu zu
1 0.000000 0.000000 0.000000
2 -1.500000 0.500000 2.500000
3 -3.000000 1.000000 5.000000
4 -4.500000 1.500000 7.500000
5 -6.000000 2.000000 10.000000
6 1.250000 2.500000 0.000000
7 -0.250000 3.000000 2.500000
8 -1.750000 3.500000 5.000000
9 -3.250000 4.000000 7.500000
10 -4.750000 4.500000 10.000000
11 2.500000 5.000000 0.000000
12 1.000000 5.500000 2.500000
13 -0.500000 6.000000 5.000000
14 -2.000000 6.500000 7.500000
15 -3.500000 7.000000 10.000000
16 3.750000 7.500000 0.000000
17 2.250000 8.000000 2.500000
18 0.750000 8.500000 5.000000
19 -0.750000 9.000000 7.500000
20 -2.250000 9.500000 10.000000
21 5.000000 10.000000 0.000000
22 3.500000 10.500000 2.500000
23 2.000000 11.000000 5.000000
24 0.500000 11.500000 7.500000
25 -1.000000 12.000000 10.000000
26 2.500000 0.000000 0.000000
27 1.000000 0.500000 2.500000
28 -0.500000 1.000000 5.000000
29 -2.000000 1.500000 7.500000
30 -3.500000 2.000000 10.000000
31 3.750000 2.500000 0.000000
32 2.250000 3.000000 2.500000
33 0.750000 3.500000 5.000000
34 -0.750000 4.000000 7.500000
35 -2.250000 4.500000 10.000000
36 5.000000 5.000000 0.000000
37 3.500000 5.500000 2.500000
38 2.000000 6.000000 5.000000
39 0.500000 6.500000 7.500000
40 -1.000000 7.000000 10.000000
41 6.250000 7.500000 0.000000
42 4.750000 8.000000 2.500000
43 3.250000 8.500000 5.000000
44 1.750000 9.000000 7.500000
45 0.250000 9.500000 10.000000
46 7.500000 10.000000 0.000000
47 6.000000 10.500000 2.500000
48 4.500000 11.000000 5.000000
49 3.000000 11.500000 7.500000
50 1.500000 12.000000 10.000000
51 5.000000 0.000000 0.000000
52 3.500000 0.500000 2.500000
53 2.000000 1.000000 5.000000
54 0.500000 1.500000 7.500000
55 -1.000000 2.000000 10.000000
56 6.250000 2.500000 0.000000
57 4.750000 3.000000 2.500000
58 3.250000 3.500000 5.000000
59 1.750000 4.000000 7.500000
60 0.250000 4.500000 10.000000
61 7.500000 5.000000 0.000000
62 6.000000 5.500000 2.500000
63 4.500000 6.000000 5.000000
64 3.000000 6.500000 7.500000
65 1.500000 7.000000 10.000000
66 8.750000 7.500000 0.000000
67 7.250000 8.000000 2.500000
68 5.750000 8.500000 5.000000
69 4.250000 9.000000 7.500000
70 2.750000 9.500000 10.000000
71 10.000000 10.000000 0.000000
72 8.500000 10.500000 2.500000
73 7.000000 11.000000 5.000000
74 5.500000 11.500000 7.500000
75 4.000000 12.000000 10.000000
76 7.500000 0.000000 0.000000
77 6.000000 0.500000 2.500000
78 4.500000 1.000000 5.000000
79 3.000000 1.500000 7.500000
80 1.500000 2.000000 10.000000
81 8.750000 2.500000 0.000000
82 7.250000 3.000000 2.500000
83 5.750000 3.500000 5.000000
84 4.250000 4.000000 7.500000
85 2.750000 4.500000 10.000000
86 10.000000 5.000000 0.000000
87 8.500000 5.500000 2.500000
88 7.000000 6.000000 5.000000
89 5.500000 6.500000 7.500000
90 4.000000 7.000000 10.000000
91 11.250000 7.500000 0.000000
92 9.750000 8.000000 2.500000
93 8.250000 8.500000 5.000000
94 6.750000 9.000000 7.500000
95 5.250000 9.500000 10.000000
96 12.500000 10.000000 0.000000
97 11.000000 10.500000 2.500000
98 9.500000 11.000000 5.000000
99 8.000000 11.500000 7.500000
100 6.500000 12.000000 10.000000
101 10.000000 0.000000 0.000000
102 8.500000 0.500000 2.500000
103 7.000000 1.000000 5.000000
104 5.500000 1.500000 7.500000
105 4.000000 2.000000 10.000000
106 11.250000 2.500000 0.000000
107 9.750000 3.000000 2.500000
108 8.250000 3.500000 5.000000
109 6.750000 4.000000 7.500000
110 5.250000 4.500000 10.000000
111 12.500000 5.000000 0.000000
112 11.000000 5.500000 2.500000
113 9.500000 6.000000 5.000000
114 8.000000 6.500000 7.500000
115 6.500000 7.000000 10.000000
116 13.750000 7.500000 0.000000
117 12.250000 8.000000 2.500000
118 10.750000 8.500000 5.000000
119 9.250000 9.000000 7.500000
120 7.750000 9.500000 10.000000
121 15.000000 10.000000 0.000000
122 13.500000 10.500000 2.500000
123 12.000000 11.000000 5.000000
124 10.500000 11.500000 7.500000
125 9.000000 12.000000 10.000000
ITEM: TIMESTEP
0
ITEM: NUMBER OF ATOMS
125
ITEM: BOX BOUNDS xy xz yz
-6.000000 15.000000 5.000000
0.000000 12.000000 -6.000000
0.000000 10.000000 2.000000
ITEM: ATOMS id xu yu zu
1 0.000000 0.000000 0.000000
2 -1.500000 0.500000 2.500000
3 -3.000000 1.000000 5.000000
4 -4.500000 1.500000 7.500000
5 -6.000000 2.000000 10.000000
6 1.250000 2.500000 0.000000
7 -0.250000 3.000000 2.500000
8 -1.750000 3.500000 5.000000
9 -3.250000 4.000000 7.500000
10 -4.750000 4.500000 10.000000
11 2.500000 5.000000 0.000000
12 1.000000 5.500000 2.500000
13 -0.500000 6.000000 5.000000
14 -2.000000 6.500000 7.500000
15 -3.500000 7.000000 10.000000
16 3.750000 7.500000 0.000000
17 2.250000 8.000000 2.500000
18 0.750000 8.500000 5.000000
19 -0.750000 9.000000 7.500000
20 -2.250000 9.500000 10.000000
21 5.000000 10.000000 0.000000
22 3.500000 10.500000 2.500000
23 2.000000 11.000000 5.000000
24 0.500000 11.500000 7.500000
25 -1.000000 12.000000 10.000000
26 2.500000 0.000000 0.000000
27 1.000000 0.500000 2.500000
28 -0.500000 1.000000 5.000000
29 -2.000000 1.500000 7.500000
30 -3.500000 2.000000 10.000000
31 3.750000 2.500000 0.000000
32 2.250000 3.000000 2.500000
33 0.750000 3.500000 5.000000
34 -0.750000 4.000000 7.500000
35 -2.250000 4.500000 10.000000
36 5.000000 5.000000 0.000000
37 3.500000 5.500000 2.500000
38 2.000000 6.000000 5.000000
39 0.500000 6.500000 7.500000
40 -1.000000 7.000000 10.000000
41 6.250000 7.500000 0.000000
42 4.750000 8.000000 2.500000
43 3.250000 8.500000 5.000000
44 1.750000 9.000000 7.500000
45 0.250000 9.500000 10.000000
46 7.500000 10.000000 0.000000
47 6.000000 10.500000 2.500000
48 4.500000 11.000000 5.000000
49 3.000000 11.500000 7.500000
50 1.500000 12.000000 10.000000
51 5.000000 0.000000 0.000000
52 3.500000 0.500000 2.500000
53 2.000000 1.000000 5.000000
54 0.500000 1.500000 7.500000
55 -1.000000 2.000000 10.000000
56 6.250000 2.500000 0.000000
57 4.750000 3.000000 2.500000
58 3.250000 3.500000 5.000000
59 1.750000 4.000000 7.500000
60 0.250000 4.500000 10.000000
61 7.500000 5.000000 0.000000
62 6.000000 5.500000 2.500000
63 4.500000 6.000000 5.000000
64 3.000000 6.500000 7.500000
65 1.500000 7.000000 10.000000
66 8.750000 7.500000 0.000000
67 7.250000 8.000000 2.500000
68 5.750000 8.500000 5.000000
69 4.250000 9.000000 7.500000
70 2.750000 9.500000 10.000000
71 10.000000 10.000000 0.000000
72 8.500000 10.500000 2.500000
73 7.000000 11.000000 5.000000
74 5.500000 11.500000 7.500000
75 4.000000 12.000000 10.000000
76 7.500000 0.000000 0.000000
77 6.000000 0.500000 2.500000
78 4.500000 1.000000 5.000000
79 3.000000 1.500000 7.500000
80 1.500000 2.000000 10.000000
81 8.750000 2.500000 0.000000
82 7.250000 3.000000 2.500000
83 5.750000 3.500000 5.000000
84 4.250000 4.000000 7.500000
85 2.750000 4.500000 10.000000
86 10.000000 5.000000 0.000000
87 8.500000 5.500000 2.500000
88 7.000000 6.000000 5.000000
89 5.500000 6.500000 7.500000
90 4.000000 7.000000 10.000000
91 11.250000 7.500000 0.000000
92 9.750000 8.000000 2.500000
93 8.250000 8.500000 5.000000
94 6.750000 9.000000 7.500000
95 5.250000 9.500000 10.000000
96 12.500000 10.000000 0.000000
97 11.000000 10.500000 2.500000
98 9.500000 11.000000 5.000000
99 8.000000 11.500000 7.500000
100 6.500000 12.000000 10.000000
101 10.000000 0.000000 0.000000
102 8.500000 0.500000 2.500000
103 7.000000 1.000000 5.000000
104 5.500000 1.500000 7.500000
105 4.000000 2.000000 10.000000
106 11.250000 2.500000 0.000000
107 9.750000 3.000000 2.500000
108 8.250000 3.500000 5.000000
109 6.750000 4.000000 7.500000
110 5.250000 4.500000 10.000000
111 12.500000 5.000000 0.000000
112 11.000000 5.500000 2.500000
113 9.500000 6.000000 5.000000
114 8.000000 6.500000 7.500000
115 6.500000 7.000000 10.000000
116 13.750000 7.500000 0.000000
117 12.250000 8.000000 2.500000
118 10.750000 8.500000 5.000000
119 9.250000 9.000000 7.500000
120 7.750000 9.500000 10.000000
121 15.000000 10.000000 0.000000
122 13.500000 10.500000 2.500000
123 12.000000 11.000000 5.000000
124 10.500000 11.500000 7.500000
125 9.000000 12.000000 10.000000
